version 2
run General-0-20130805-14:45:32-7567
attr configname General
attr datetime 20130805-14:45:32
attr experiment General
attr inifile gtpExample.ini
attr iterationvars ""
attr iterationvars2 $repetition=0
attr measurement ""
attr network GtpNetwork
attr processid 7567
attr repetition 0
attr replication #0
attr resultdir ResultGtpNetwork
attr runnumber 0
attr seedset 0

vector 47  GtpNetwork.router3.ppp[0].queue  queueLength:vector  ETV
attr interpolationmode  sample-hold
attr title  "queue length, vector"
vector 48  GtpNetwork.router3.ppp[0].ppp  txState:vector  ETV
attr interpolationmode  sample-hold
attr title  "tx state, vector"
vector 93  GtpNetwork.pgwStandard3.ppp[0].queue  queueLength:vector  ETV
attr interpolationmode  sample-hold
attr title  "queue length, vector"
vector 94  GtpNetwork.pgwStandard3.ppp[0].ppp  txState:vector  ETV
attr interpolationmode  sample-hold
attr title  "tx state, vector"
vector 104  GtpNetwork.pgwStandard3.pppInterface.queue  queueLength:vector  ETV
attr interpolationmode  sample-hold
attr title  "queue length, vector"
vector 105  GtpNetwork.pgwStandard3.pppInterface.ppp  txState:vector  ETV
attr interpolationmode  sample-hold
attr title  "tx state, vector"
vector 124  GtpNetwork.pgwStandard1.ppp[0].queue  queueLength:vector  ETV
attr interpolationmode  sample-hold
attr title  "queue length, vector"
vector 125  GtpNetwork.pgwStandard1.ppp[0].ppp  txState:vector  ETV
attr interpolationmode  sample-hold
attr title  "tx state, vector"
vector 135  GtpNetwork.pgwStandard1.pppInterface.queue  queueLength:vector  ETV
attr interpolationmode  sample-hold
attr title  "queue length, vector"
vector 136  GtpNetwork.pgwStandard1.pppInterface.ppp  txState:vector  ETV
attr interpolationmode  sample-hold
attr title  "tx state, vector"
vector 162  GtpNetwork.router1.ppp[0].queue  queueLength:vector  ETV
attr interpolationmode  sample-hold
attr title  "queue length, vector"
vector 163  GtpNetwork.router1.ppp[0].ppp  txState:vector  ETV
attr interpolationmode  sample-hold
attr title  "tx state, vector"
vector 177  GtpNetwork.coreNetwork.ppp[0].queue  queueLength:vector  ETV
attr interpolationmode  sample-hold
attr title  "queue length, vector"
vector 178  GtpNetwork.coreNetwork.ppp[0].ppp  txState:vector  ETV
attr interpolationmode  sample-hold
attr title  "tx state, vector"
vector 188  GtpNetwork.coreNetwork.ppp[1].queue  queueLength:vector  ETV
attr interpolationmode  sample-hold
attr title  "queue length, vector"
vector 189  GtpNetwork.coreNetwork.ppp[1].ppp  txState:vector  ETV
attr interpolationmode  sample-hold
attr title  "tx state, vector"
vector 199  GtpNetwork.coreNetwork.ppp[2].queue  queueLength:vector  ETV
attr interpolationmode  sample-hold
attr title  "queue length, vector"
vector 200  GtpNetwork.coreNetwork.ppp[2].ppp  txState:vector  ETV
attr interpolationmode  sample-hold
attr title  "tx state, vector"
vector 219  GtpNetwork.pgwStandard2.ppp[0].queue  queueLength:vector  ETV
attr interpolationmode  sample-hold
attr title  "queue length, vector"
vector 220  GtpNetwork.pgwStandard2.ppp[0].ppp  txState:vector  ETV
attr interpolationmode  sample-hold
attr title  "tx state, vector"
vector 230  GtpNetwork.pgwStandard2.pppInterface.queue  queueLength:vector  ETV
attr interpolationmode  sample-hold
attr title  "queue length, vector"
vector 231  GtpNetwork.pgwStandard2.pppInterface.ppp  txState:vector  ETV
attr interpolationmode  sample-hold
attr title  "tx state, vector"
vector 257  GtpNetwork.router2.ppp[0].queue  queueLength:vector  ETV
attr interpolationmode  sample-hold
attr title  "queue length, vector"
vector 258  GtpNetwork.router2.ppp[0].ppp  txState:vector  ETV
attr interpolationmode  sample-hold
attr title  "tx state, vector"
vector 58  GtpNetwork.Host1.pingApp[0]  pingTxSeq:vector  ETV
attr interpolationmode  none
attr title  "ping tx seq, vector"
vector 65  GtpNetwork.Host1.networkLayer.arp  sentReq:vector  ETV
attr title  "ARP request sent, vector"
vector 67  GtpNetwork.Host1.networkLayer.arp  initiatedResolution:vector  ETV
attr title  "ARP initiated resolutions, vector"
vector 78  GtpNetwork.Host1.eth[0].encap  encapPk:vector(packetBytes)  ETV
attr interpolationmode  none
attr source  encapPk
attr title  "packets encapsulated, vector(packetBytes)"
vector 74  GtpNetwork.Host1.eth[0].mac  rxPkFromHL:vector(packetBytes)  ETV
attr interpolationmode  none
attr source  rxPkFromHL
attr title  "packet bytes from higher layer, vector(packetBytes)"
vector 69  GtpNetwork.Host1.eth[0].mac  txPk:vector(packetBytes)  ETV
attr interpolationmode  none
attr source  txPk
attr title  "packets transmitted, vector(packetBytes)"
vector 148  GtpNetwork.router1.eth[0].mac  rxPkOk:vector(packetBytes)  ETV
attr interpolationmode  none
attr source  rxPkOk
attr title  "packets received OK, vector(packetBytes)"
vector 149  GtpNetwork.router1.eth[0].mac  passedUpPk:vector(packetBytes)  ETV
attr interpolationmode  none
attr source  packetSentToUpper
attr title  "packets passed to higher layer, vector(packetBytes)"
vector 157  GtpNetwork.router1.eth[0].encap  decapPk:vector(packetBytes)  ETV
attr interpolationmode  none
attr source  decapPk
attr title  "packets decapsulated, vector(packetBytes)"
vector 156  GtpNetwork.router1.eth[0].encap  encapPk:vector(packetBytes)  ETV
attr interpolationmode  none
attr source  encapPk
attr title  "packets encapsulated, vector(packetBytes)"
vector 152  GtpNetwork.router1.eth[0].mac  rxPkFromHL:vector(packetBytes)  ETV
attr interpolationmode  none
attr source  rxPkFromHL
attr title  "packet bytes from higher layer, vector(packetBytes)"
vector 147  GtpNetwork.router1.eth[0].mac  txPk:vector(packetBytes)  ETV
attr interpolationmode  none
attr source  txPk
attr title  "packets transmitted, vector(packetBytes)"
vector 70  GtpNetwork.Host1.eth[0].mac  rxPkOk:vector(packetBytes)  ETV
attr interpolationmode  none
attr source  rxPkOk
attr title  "packets received OK, vector(packetBytes)"
vector 71  GtpNetwork.Host1.eth[0].mac  passedUpPk:vector(packetBytes)  ETV
attr interpolationmode  none
attr source  packetSentToUpper
attr title  "packets passed to higher layer, vector(packetBytes)"
vector 79  GtpNetwork.Host1.eth[0].encap  decapPk:vector(packetBytes)  ETV
attr interpolationmode  none
attr source  decapPk
attr title  "packets decapsulated, vector(packetBytes)"
vector 159  GtpNetwork.router1.ppp[0].queue  rcvdPk:vector(packetBytes)  ETV
attr interpolationmode  none
attr title  "received packets, vector(packetBytes)"
vector 161  GtpNetwork.router1.ppp[0].queue  queueingTime:vector  ETV
attr interpolationmode  none
attr title  "queueing time, vector"
vector 168  GtpNetwork.router1.ppp[0].ppp  rcvdPkFromHL:vector(packetBytes)  ETV
attr interpolationmode  none
attr source  packetReceivedFromUpper
attr title  "packets received from higher layer, vector(packetBytes)"
vector 164  GtpNetwork.router1.ppp[0].ppp  txPk:vector(packetBytes)  ETV
attr interpolationmode  none
attr source  packetSentToLower
attr title  "packets transmitted, vector(packetBytes)"
vector 138  GtpNetwork.pgwStandard1.pppInterface.ppp  rxPkOk:vector(packetBytes)  ETV
attr interpolationmode  none
attr source  rxPkOk
attr title  "packets received OK, vector(packetBytes)"
vector 142  GtpNetwork.pgwStandard1.pppInterface.ppp  passedUpPk:vector(packetBytes)  ETV
attr interpolationmode  none
attr source  packetSentToUpper
attr title  "packets passed to higher layer, vector(packetBytes)"
vector 112  GtpNetwork.pgwStandard1.udp  sentPk:vector(packetBytes)  ETV
attr interpolationmode  none
attr source  sentPk
attr title  "packets sent, vector(packetBytes)"
vector 121  GtpNetwork.pgwStandard1.ppp[0].queue  rcvdPk:vector(packetBytes)  ETV
attr interpolationmode  none
attr title  "received packets, vector(packetBytes)"
vector 123  GtpNetwork.pgwStandard1.ppp[0].queue  queueingTime:vector  ETV
attr interpolationmode  none
attr title  "queueing time, vector"
vector 130  GtpNetwork.pgwStandard1.ppp[0].ppp  rcvdPkFromHL:vector(packetBytes)  ETV
attr interpolationmode  none
attr source  packetReceivedFromUpper
attr title  "packets received from higher layer, vector(packetBytes)"
vector 126  GtpNetwork.pgwStandard1.ppp[0].ppp  txPk:vector(packetBytes)  ETV
attr interpolationmode  none
attr source  packetSentToLower
attr title  "packets transmitted, vector(packetBytes)"
vector 180  GtpNetwork.coreNetwork.ppp[0].ppp  rxPkOk:vector(packetBytes)  ETV
attr interpolationmode  none
attr source  rxPkOk
attr title  "packets received OK, vector(packetBytes)"
vector 184  GtpNetwork.coreNetwork.ppp[0].ppp  passedUpPk:vector(packetBytes)  ETV
attr interpolationmode  none
attr source  packetSentToUpper
attr title  "packets passed to higher layer, vector(packetBytes)"
vector 196  GtpNetwork.coreNetwork.ppp[2].queue  rcvdPk:vector(packetBytes)  ETV
attr interpolationmode  none
attr title  "received packets, vector(packetBytes)"
vector 198  GtpNetwork.coreNetwork.ppp[2].queue  queueingTime:vector  ETV
attr interpolationmode  none
attr title  "queueing time, vector"
vector 205  GtpNetwork.coreNetwork.ppp[2].ppp  rcvdPkFromHL:vector(packetBytes)  ETV
attr interpolationmode  none
attr source  packetReceivedFromUpper
attr title  "packets received from higher layer, vector(packetBytes)"
vector 201  GtpNetwork.coreNetwork.ppp[2].ppp  txPk:vector(packetBytes)  ETV
attr interpolationmode  none
attr source  packetSentToLower
attr title  "packets transmitted, vector(packetBytes)"
vector 222  GtpNetwork.pgwStandard2.ppp[0].ppp  rxPkOk:vector(packetBytes)  ETV
attr interpolationmode  none
attr source  rxPkOk
attr title  "packets received OK, vector(packetBytes)"
vector 226  GtpNetwork.pgwStandard2.ppp[0].ppp  passedUpPk:vector(packetBytes)  ETV
attr interpolationmode  none
attr source  packetSentToUpper
attr title  "packets passed to higher layer, vector(packetBytes)"
vector 208  GtpNetwork.pgwStandard2.udp  rcvdPk:vector(packetBytes)  ETV
attr interpolationmode  none
attr source  rcvdPk
attr title  "packets received, vector(packetBytes)"
vector 209  GtpNetwork.pgwStandard2.udp  passedUpPk:vector(count)  ETV
attr interpolationmode  none
attr title  "packets passed up, vector(count)"
vector 207  GtpNetwork.pgwStandard2.udp  sentPk:vector(packetBytes)  ETV
attr interpolationmode  none
attr source  sentPk
attr title  "packets sent, vector(packetBytes)"
vector 216  GtpNetwork.pgwStandard2.ppp[0].queue  rcvdPk:vector(packetBytes)  ETV
attr interpolationmode  none
attr title  "received packets, vector(packetBytes)"
vector 218  GtpNetwork.pgwStandard2.ppp[0].queue  queueingTime:vector  ETV
attr interpolationmode  none
attr title  "queueing time, vector"
vector 225  GtpNetwork.pgwStandard2.ppp[0].ppp  rcvdPkFromHL:vector(packetBytes)  ETV
attr interpolationmode  none
attr source  packetReceivedFromUpper
attr title  "packets received from higher layer, vector(packetBytes)"
vector 221  GtpNetwork.pgwStandard2.ppp[0].ppp  txPk:vector(packetBytes)  ETV
attr interpolationmode  none
attr source  packetSentToLower
attr title  "packets transmitted, vector(packetBytes)"
vector 202  GtpNetwork.coreNetwork.ppp[2].ppp  rxPkOk:vector(packetBytes)  ETV
attr interpolationmode  none
attr source  rxPkOk
attr title  "packets received OK, vector(packetBytes)"
vector 206  GtpNetwork.coreNetwork.ppp[2].ppp  passedUpPk:vector(packetBytes)  ETV
attr interpolationmode  none
attr source  packetSentToUpper
attr title  "packets passed to higher layer, vector(packetBytes)"
vector 185  GtpNetwork.coreNetwork.ppp[1].queue  rcvdPk:vector(packetBytes)  ETV
attr interpolationmode  none
attr title  "received packets, vector(packetBytes)"
vector 187  GtpNetwork.coreNetwork.ppp[1].queue  queueingTime:vector  ETV
attr interpolationmode  none
attr title  "queueing time, vector"
vector 194  GtpNetwork.coreNetwork.ppp[1].ppp  rcvdPkFromHL:vector(packetBytes)  ETV
attr interpolationmode  none
attr source  packetReceivedFromUpper
attr title  "packets received from higher layer, vector(packetBytes)"
vector 190  GtpNetwork.coreNetwork.ppp[1].ppp  txPk:vector(packetBytes)  ETV
attr interpolationmode  none
attr source  packetSentToLower
attr title  "packets transmitted, vector(packetBytes)"
vector 96  GtpNetwork.pgwStandard3.ppp[0].ppp  rxPkOk:vector(packetBytes)  ETV
attr interpolationmode  none
attr source  rxPkOk
attr title  "packets received OK, vector(packetBytes)"
vector 100  GtpNetwork.pgwStandard3.ppp[0].ppp  passedUpPk:vector(packetBytes)  ETV
attr interpolationmode  none
attr source  packetSentToUpper
attr title  "packets passed to higher layer, vector(packetBytes)"
vector 82  GtpNetwork.pgwStandard3.udp  rcvdPk:vector(packetBytes)  ETV
attr interpolationmode  none
attr source  rcvdPk
attr title  "packets received, vector(packetBytes)"
vector 83  GtpNetwork.pgwStandard3.udp  passedUpPk:vector(count)  ETV
attr interpolationmode  none
attr title  "packets passed up, vector(count)"
vector 101  GtpNetwork.pgwStandard3.pppInterface.queue  rcvdPk:vector(packetBytes)  ETV
attr interpolationmode  none
attr title  "received packets, vector(packetBytes)"
vector 103  GtpNetwork.pgwStandard3.pppInterface.queue  queueingTime:vector  ETV
attr interpolationmode  none
attr title  "queueing time, vector"
vector 110  GtpNetwork.pgwStandard3.pppInterface.ppp  rcvdPkFromHL:vector(packetBytes)  ETV
attr interpolationmode  none
attr source  packetReceivedFromUpper
attr title  "packets received from higher layer, vector(packetBytes)"
vector 106  GtpNetwork.pgwStandard3.pppInterface.ppp  txPk:vector(packetBytes)  ETV
attr interpolationmode  none
attr source  packetSentToLower
attr title  "packets transmitted, vector(packetBytes)"
vector 50  GtpNetwork.router3.ppp[0].ppp  rxPkOk:vector(packetBytes)  ETV
attr interpolationmode  none
attr source  rxPkOk
attr title  "packets received OK, vector(packetBytes)"
vector 54  GtpNetwork.router3.ppp[0].ppp  passedUpPk:vector(packetBytes)  ETV
attr interpolationmode  none
attr source  packetSentToUpper
attr title  "packets passed to higher layer, vector(packetBytes)"
vector 16  GtpNetwork.router3.networkLayer.arp  sentReq:vector  ETV
attr title  "ARP request sent, vector"
vector 18  GtpNetwork.router3.networkLayer.arp  initiatedResolution:vector  ETV
attr title  "ARP initiated resolutions, vector"
vector 41  GtpNetwork.router3.eth[1].encap  encapPk:vector(packetBytes)  ETV
attr interpolationmode  none
attr source  encapPk
attr title  "packets encapsulated, vector(packetBytes)"
vector 37  GtpNetwork.router3.eth[1].mac  rxPkFromHL:vector(packetBytes)  ETV
attr interpolationmode  none
attr source  rxPkFromHL
attr title  "packet bytes from higher layer, vector(packetBytes)"
vector 32  GtpNetwork.router3.eth[1].mac  txPk:vector(packetBytes)  ETV
attr interpolationmode  none
attr source  txPk
attr title  "packets transmitted, vector(packetBytes)"
vector 286  GtpNetwork.Host4.eth[0].mac  rxPkOk:vector(packetBytes)  ETV
attr interpolationmode  none
attr source  rxPkOk
attr title  "packets received OK, vector(packetBytes)"
vector 287  GtpNetwork.Host4.eth[0].mac  passedUpPk:vector(packetBytes)  ETV
attr interpolationmode  none
attr source  packetSentToUpper
attr title  "packets passed to higher layer, vector(packetBytes)"
vector 295  GtpNetwork.Host4.eth[0].encap  decapPk:vector(packetBytes)  ETV
attr interpolationmode  none
attr source  decapPk
attr title  "packets decapsulated, vector(packetBytes)"
vector 294  GtpNetwork.Host4.eth[0].encap  encapPk:vector(packetBytes)  ETV
attr interpolationmode  none
attr source  encapPk
attr title  "packets encapsulated, vector(packetBytes)"
vector 290  GtpNetwork.Host4.eth[0].mac  rxPkFromHL:vector(packetBytes)  ETV
attr interpolationmode  none
attr source  rxPkFromHL
attr title  "packet bytes from higher layer, vector(packetBytes)"
vector 285  GtpNetwork.Host4.eth[0].mac  txPk:vector(packetBytes)  ETV
attr interpolationmode  none
attr source  txPk
attr title  "packets transmitted, vector(packetBytes)"
vector 33  GtpNetwork.router3.eth[1].mac  rxPkOk:vector(packetBytes)  ETV
attr interpolationmode  none
attr source  rxPkOk
attr title  "packets received OK, vector(packetBytes)"
vector 34  GtpNetwork.router3.eth[1].mac  passedUpPk:vector(packetBytes)  ETV
attr interpolationmode  none
attr source  packetSentToUpper
attr title  "packets passed to higher layer, vector(packetBytes)"
vector 42  GtpNetwork.router3.eth[1].encap  decapPk:vector(packetBytes)  ETV
attr interpolationmode  none
attr source  decapPk
attr title  "packets decapsulated, vector(packetBytes)"
vector 44  GtpNetwork.router3.ppp[0].queue  rcvdPk:vector(packetBytes)  ETV
attr interpolationmode  none
attr title  "received packets, vector(packetBytes)"
vector 46  GtpNetwork.router3.ppp[0].queue  queueingTime:vector  ETV
attr interpolationmode  none
attr title  "queueing time, vector"
vector 53  GtpNetwork.router3.ppp[0].ppp  rcvdPkFromHL:vector(packetBytes)  ETV
attr interpolationmode  none
attr source  packetReceivedFromUpper
attr title  "packets received from higher layer, vector(packetBytes)"
vector 49  GtpNetwork.router3.ppp[0].ppp  txPk:vector(packetBytes)  ETV
attr interpolationmode  none
attr source  packetSentToLower
attr title  "packets transmitted, vector(packetBytes)"
vector 107  GtpNetwork.pgwStandard3.pppInterface.ppp  rxPkOk:vector(packetBytes)  ETV
attr interpolationmode  none
attr source  rxPkOk
attr title  "packets received OK, vector(packetBytes)"
vector 111  GtpNetwork.pgwStandard3.pppInterface.ppp  passedUpPk:vector(packetBytes)  ETV
attr interpolationmode  none
attr source  packetSentToUpper
attr title  "packets passed to higher layer, vector(packetBytes)"
vector 81  GtpNetwork.pgwStandard3.udp  sentPk:vector(packetBytes)  ETV
attr interpolationmode  none
attr source  sentPk
attr title  "packets sent, vector(packetBytes)"
vector 90  GtpNetwork.pgwStandard3.ppp[0].queue  rcvdPk:vector(packetBytes)  ETV
attr interpolationmode  none
attr title  "received packets, vector(packetBytes)"
vector 92  GtpNetwork.pgwStandard3.ppp[0].queue  queueingTime:vector  ETV
attr interpolationmode  none
attr title  "queueing time, vector"
vector 99  GtpNetwork.pgwStandard3.ppp[0].ppp  rcvdPkFromHL:vector(packetBytes)  ETV
attr interpolationmode  none
attr source  packetReceivedFromUpper
attr title  "packets received from higher layer, vector(packetBytes)"
vector 95  GtpNetwork.pgwStandard3.ppp[0].ppp  txPk:vector(packetBytes)  ETV
attr interpolationmode  none
attr source  packetSentToLower
attr title  "packets transmitted, vector(packetBytes)"
vector 191  GtpNetwork.coreNetwork.ppp[1].ppp  rxPkOk:vector(packetBytes)  ETV
attr interpolationmode  none
attr source  rxPkOk
attr title  "packets received OK, vector(packetBytes)"
vector 195  GtpNetwork.coreNetwork.ppp[1].ppp  passedUpPk:vector(packetBytes)  ETV
attr interpolationmode  none
attr source  packetSentToUpper
attr title  "packets passed to higher layer, vector(packetBytes)"
vector 174  GtpNetwork.coreNetwork.ppp[0].queue  rcvdPk:vector(packetBytes)  ETV
attr interpolationmode  none
attr title  "received packets, vector(packetBytes)"
vector 176  GtpNetwork.coreNetwork.ppp[0].queue  queueingTime:vector  ETV
attr interpolationmode  none
attr title  "queueing time, vector"
vector 183  GtpNetwork.coreNetwork.ppp[0].ppp  rcvdPkFromHL:vector(packetBytes)  ETV
attr interpolationmode  none
attr source  packetReceivedFromUpper
attr title  "packets received from higher layer, vector(packetBytes)"
vector 179  GtpNetwork.coreNetwork.ppp[0].ppp  txPk:vector(packetBytes)  ETV
attr interpolationmode  none
attr source  packetSentToLower
attr title  "packets transmitted, vector(packetBytes)"
vector 127  GtpNetwork.pgwStandard1.ppp[0].ppp  rxPkOk:vector(packetBytes)  ETV
attr interpolationmode  none
attr source  rxPkOk
attr title  "packets received OK, vector(packetBytes)"
vector 131  GtpNetwork.pgwStandard1.ppp[0].ppp  passedUpPk:vector(packetBytes)  ETV
attr interpolationmode  none
attr source  packetSentToUpper
attr title  "packets passed to higher layer, vector(packetBytes)"
vector 113  GtpNetwork.pgwStandard1.udp  rcvdPk:vector(packetBytes)  ETV
attr interpolationmode  none
attr source  rcvdPk
attr title  "packets received, vector(packetBytes)"
vector 114  GtpNetwork.pgwStandard1.udp  passedUpPk:vector(count)  ETV
attr interpolationmode  none
attr title  "packets passed up, vector(count)"
vector 132  GtpNetwork.pgwStandard1.pppInterface.queue  rcvdPk:vector(packetBytes)  ETV
attr interpolationmode  none
attr title  "received packets, vector(packetBytes)"
vector 134  GtpNetwork.pgwStandard1.pppInterface.queue  queueingTime:vector  ETV
attr interpolationmode  none
attr title  "queueing time, vector"
vector 141  GtpNetwork.pgwStandard1.pppInterface.ppp  rcvdPkFromHL:vector(packetBytes)  ETV
attr interpolationmode  none
attr source  packetReceivedFromUpper
attr title  "packets received from higher layer, vector(packetBytes)"
vector 137  GtpNetwork.pgwStandard1.pppInterface.ppp  txPk:vector(packetBytes)  ETV
attr interpolationmode  none
attr source  packetSentToLower
attr title  "packets transmitted, vector(packetBytes)"
vector 165  GtpNetwork.router1.ppp[0].ppp  rxPkOk:vector(packetBytes)  ETV
attr interpolationmode  none
attr source  rxPkOk
attr title  "packets received OK, vector(packetBytes)"
vector 169  GtpNetwork.router1.ppp[0].ppp  passedUpPk:vector(packetBytes)  ETV
attr interpolationmode  none
attr source  packetSentToUpper
attr title  "packets passed to higher layer, vector(packetBytes)"
vector 59  GtpNetwork.Host1.pingApp[0]  pingRxSeq:vector  ETV
attr interpolationmode  none
attr title  "ping rx seq, vector"
vector 55  GtpNetwork.Host1.pingApp[0]  rtt:vector  ETV
attr interpolationmode  none
attr title  "ping round-trip time, vector"
attr unit  s
vector 63  GtpNetwork.Host1.pingApp[1]  pingTxSeq:vector  ETV
attr interpolationmode  none
attr title  "ping tx seq, vector"
vector 29  GtpNetwork.router3.eth[0].encap  encapPk:vector(packetBytes)  ETV
attr interpolationmode  none
attr source  encapPk
attr title  "packets encapsulated, vector(packetBytes)"
vector 25  GtpNetwork.router3.eth[0].mac  rxPkFromHL:vector(packetBytes)  ETV
attr interpolationmode  none
attr source  rxPkFromHL
attr title  "packet bytes from higher layer, vector(packetBytes)"
vector 20  GtpNetwork.router3.eth[0].mac  txPk:vector(packetBytes)  ETV
attr interpolationmode  none
attr source  txPk
attr title  "packets transmitted, vector(packetBytes)"
vector 5  GtpNetwork.Host3.eth[0].mac  rxPkOk:vector(packetBytes)  ETV
attr interpolationmode  none
attr source  rxPkOk
attr title  "packets received OK, vector(packetBytes)"
vector 6  GtpNetwork.Host3.eth[0].mac  passedUpPk:vector(packetBytes)  ETV
attr interpolationmode  none
attr source  packetSentToUpper
attr title  "packets passed to higher layer, vector(packetBytes)"
vector 14  GtpNetwork.Host3.eth[0].encap  decapPk:vector(packetBytes)  ETV
attr interpolationmode  none
attr source  decapPk
attr title  "packets decapsulated, vector(packetBytes)"
vector 13  GtpNetwork.Host3.eth[0].encap  encapPk:vector(packetBytes)  ETV
attr interpolationmode  none
attr source  encapPk
attr title  "packets encapsulated, vector(packetBytes)"
vector 9  GtpNetwork.Host3.eth[0].mac  rxPkFromHL:vector(packetBytes)  ETV
attr interpolationmode  none
attr source  rxPkFromHL
attr title  "packet bytes from higher layer, vector(packetBytes)"
vector 4  GtpNetwork.Host3.eth[0].mac  txPk:vector(packetBytes)  ETV
attr interpolationmode  none
attr source  txPk
attr title  "packets transmitted, vector(packetBytes)"
vector 21  GtpNetwork.router3.eth[0].mac  rxPkOk:vector(packetBytes)  ETV
attr interpolationmode  none
attr source  rxPkOk
attr title  "packets received OK, vector(packetBytes)"
vector 22  GtpNetwork.router3.eth[0].mac  passedUpPk:vector(packetBytes)  ETV
attr interpolationmode  none
attr source  packetSentToUpper
attr title  "packets passed to higher layer, vector(packetBytes)"
vector 30  GtpNetwork.router3.eth[0].encap  decapPk:vector(packetBytes)  ETV
attr interpolationmode  none
attr source  decapPk
attr title  "packets decapsulated, vector(packetBytes)"
vector 64  GtpNetwork.Host1.pingApp[1]  pingRxSeq:vector  ETV
attr interpolationmode  none
attr title  "ping rx seq, vector"
vector 60  GtpNetwork.Host1.pingApp[1]  rtt:vector  ETV
attr interpolationmode  none
attr title  "ping round-trip time, vector"
attr unit  s
4	198	1.5005366	64
4	216	1.5007192	94
4	422	2.5005846	94
4	628	3.5005846	94
4	834	4.5005846	94
4	1040	5.5005846	94
4	1246	6.5005846	94
4	1452	7.5005846	94
4	1658	8.5005846	94
5	191	1.5004694	64
5	207	1.500628	94
5	413	2.5004934	94
5	619	3.5004934	94
5	825	4.5004934	94
5	1031	5.5004934	94
5	1237	6.5004934	94
5	1443	7.5004934	94
5	1649	8.5004934	94
6	191	1.5004694	64
6	207	1.500628	94
6	413	2.5004934	94
6	619	3.5004934	94
6	825	4.5004934	94
6	1031	5.5004934	94
6	1237	6.5004934	94
6	1443	7.5004934	94
6	1649	8.5004934	94
9	196	1.5004694	64
9	214	1.500628	94
9	420	2.5004934	94
9	626	3.5004934	94
9	832	4.5004934	94
9	1038	5.5004934	94
9	1244	6.5004934	94
9	1450	7.5004934	94
9	1656	8.5004934	94
13	195	1.5004694	28
13	213	1.500628	76
13	419	2.5004934	76
13	625	3.5004934	76
13	831	4.5004934	76
13	1037	5.5004934	76
13	1243	6.5004934	76
13	1449	7.5004934	76
13	1655	8.5004934	76
14	192	1.5004694	28
14	208	1.500628	76
14	414	2.5004934	76
14	620	3.5004934	76
14	826	4.5004934	76
14	1032	5.5004934	76
14	1238	6.5004934	76
14	1444	7.5004934	76
14	1650	8.5004934	76
16	75	1.0007145	1
16	186	1.5004021	1
18	75	1.0007145	1
18	186	1.5004021	1
20	190	1.5004693	64
20	206	1.5006279	94
20	412	2.5004933	94
20	618	3.5004933	94
20	824	4.5004933	94
20	1030	5.5004933	94
20	1236	6.5004933	94
20	1442	7.5004933	94
20	1648	8.5004933	94
21	199	1.5005367	64
21	217	1.5007193	94
21	423	2.5005847	94
21	629	3.5005847	94
21	835	4.5005847	94
21	1041	5.5005847	94
21	1247	6.5005847	94
21	1453	7.5005847	94
21	1659	8.5005847	94
22	199	1.5005367	64
22	217	1.5007193	94
22	423	2.5005847	94
22	629	3.5005847	94
22	835	4.5005847	94
22	1041	5.5005847	94
22	1247	6.5005847	94
22	1453	7.5005847	94
22	1659	8.5005847	94
25	188	1.5004021	64
25	204	1.5005367	94
25	410	2.5004021	94
25	616	3.5004021	94
25	822	4.5004021	94
25	1028	5.5004021	94
25	1234	6.5004021	94
25	1440	7.5004021	94
25	1646	8.5004021	94
29	187	1.5004021	28
29	203	1.5005367	76
29	409	2.5004021	76
29	615	3.5004021	76
29	821	4.5004021	76
29	1027	5.5004021	76
29	1233	6.5004021	76
29	1439	7.5004021	76
29	1645	8.5004021	76
30	200	1.5005367	28
30	218	1.5007193	76
30	424	2.5005847	76
30	630	3.5005847	76
30	836	4.5005847	76
30	1042	5.5005847	76
30	1248	6.5005847	76
30	1454	7.5005847	76
30	1660	8.5005847	76
32	79	1.0007817	64
32	95	1.0009403	94
32	317	2.0006711	94
32	523	3.0006711	94
32	729	4.0006711	94
32	935	5.0006711	94
32	1141	6.0006711	94
32	1347	7.0006711	94
32	1553	8.0006711	94
33	88	1.0008491	64
33	106	1.0010317	94
33	328	2.0007625	94
33	534	3.0007625	94
33	740	4.0007625	94
33	946	5.0007625	94
33	1152	6.0007625	94
33	1358	7.0007625	94
33	1564	8.0007625	94
34	88	1.0008491	64
34	106	1.0010317	94
34	328	2.0007625	94
34	534	3.0007625	94
34	740	4.0007625	94
34	946	5.0007625	94
34	1152	6.0007625	94
34	1358	7.0007625	94
34	1564	8.0007625	94
37	77	1.0007145	64
37	93	1.0008491	94
37	315	2.0005799	94
37	521	3.0005799	94
37	727	4.0005799	94
37	933	5.0005799	94
37	1139	6.0005799	94
37	1345	7.0005799	94
37	1551	8.0005799	94
41	76	1.0007145	28
41	92	1.0008491	76
41	314	2.0005799	76
41	520	3.0005799	76
41	726	4.0005799	76
41	932	5.0005799	76
41	1138	6.0005799	76
41	1344	7.0005799	76
41	1550	8.0005799	76
42	89	1.0008491	28
42	107	1.0010317	76
42	329	2.0007625	76
42	535	3.0007625	76
42	741	4.0007625	76
42	947	5.0007625	76
42	1153	6.0007625	76
42	1359	7.0007625	76
42	1565	8.0007625	76
44	110	1.0010317	76
44	221	1.5007193	76
44	332	2.0007625	76
44	427	2.5005847	76
44	538	3.0007625	76
44	633	3.5005847	76
44	744	4.0007625	76
44	839	4.5005847	76
44	950	5.0007625	76
44	1045	5.5005847	76
44	1156	6.0007625	76
44	1251	6.5005847	76
44	1362	7.0007625	76
44	1457	7.5005847	76
44	1568	8.0007625	76
44	1663	8.5005847	76
46	110	1.0010317	0
46	221	1.5007193	0
46	332	2.0007625	0
46	427	2.5005847	0
46	538	3.0007625	0
46	633	3.5005847	0
46	744	4.0007625	0
46	839	4.5005847	0
46	950	5.0007625	0
46	1045	5.5005847	0
46	1156	6.0007625	0
46	1251	6.5005847	0
46	1362	7.0007625	0
46	1457	7.5005847	0
46	1568	8.0007625	0
46	1663	8.5005847	0
47	0	0	0
48	0	0	0
48	111	1.0010317	1
48	112	1.0010981	0
48	222	1.5007193	1
48	223	1.5007857	0
48	333	2.0007625	1
48	334	2.0008289	0
48	428	2.5005847	1
48	429	2.5006511	0
48	539	3.0007625	1
48	540	3.0008289	0
48	634	3.5005847	1
48	635	3.5006511	0
48	745	4.0007625	1
48	746	4.0008289	0
48	840	4.5005847	1
48	841	4.5006511	0
48	951	5.0007625	1
48	952	5.0008289	0
48	1046	5.5005847	1
48	1047	5.5006511	0
48	1157	6.0007625	1
48	1158	6.0008289	0
48	1252	6.5005847	1
48	1253	6.5006511	0
48	1363	7.0007625	1
48	1364	7.0008289	0
48	1458	7.5005847	1
48	1459	7.5006511	0
48	1569	8.0007625	1
48	1570	8.0008289	0
48	1664	8.5005847	1
48	1665	8.5006511	0
49	111	1.0010317	83
49	222	1.5007193	83
49	333	2.0007625	83
49	428	2.5005847	83
49	539	3.0007625	83
49	634	3.5005847	83
49	745	4.0007625	83
49	840	4.5005847	83
49	951	5.0007625	83
49	1046	5.5005847	83
49	1157	6.0007625	83
49	1252	6.5005847	83
49	1363	7.0007625	83
49	1458	7.5005847	83
49	1569	8.0007625	83
49	1664	8.5005847	83
50	73	1.0007145	83
50	184	1.5004021	83
50	311	2.0005799	83
50	406	2.5004021	83
50	517	3.0005799	83
50	612	3.5004021	83
50	723	4.0005799	83
50	818	4.5004021	83
50	929	5.0005799	83
50	1024	5.5004021	83
50	1135	6.0005799	83
50	1230	6.5004021	83
50	1341	7.0005799	83
50	1436	7.5004021	83
50	1547	8.0005799	83
50	1642	8.5004021	83
53	111	1.0010317	76
53	222	1.5007193	76
53	333	2.0007625	76
53	428	2.5005847	76
53	539	3.0007625	76
53	634	3.5005847	76
53	745	4.0007625	76
53	840	4.5005847	76
53	951	5.0007625	76
53	1046	5.5005847	76
53	1157	6.0007625	76
53	1252	6.5005847	76
53	1363	7.0007625	76
53	1458	7.5005847	76
53	1569	8.0007625	76
53	1664	8.5005847	76
54	73	1.0007145	76
54	184	1.5004021	76
54	311	2.0005799	76
54	406	2.5004021	76
54	517	3.0005799	76
54	612	3.5004021	76
54	723	4.0005799	76
54	818	4.5004021	76